Program Version,EnergyPlus, Version 25.1.0-68a4a7c774, YMD=2025.11.08 11:51
1,5,Environment Title[],Latitude[deg],Longitude[deg],Time Zone[],Elevation[m]
2,8,Day of Simulation[],Month[],Day of Month[],DST Indicator[1=yes 0=no],Hour[],StartMinute[],EndMinute[],DayType
3,5,Cumulative Day of Simulation[],Month[],Day of Month[],DST Indicator[1=yes 0=no],DayType  ! When Daily Report Variables Requested
4,2,Cumulative Days of Simulation[],Month[]  ! When Monthly Report Variables Requested
5,1,Cumulative Days of Simulation[] ! When Run Period Report Variables Requested
6,1,Calendar Year of Simulation[] ! When Annual Report Variables Requested
7,1,Environment,Site Outdoor Air Drybulb Temperature [C] !TimeStep
8,1,Environment,Site Outdoor Air Dewpoint Temperature [C] !TimeStep
9,1,Environment,Site Outdoor Air Relative Humidity [%] !TimeStep
10,1,Environment,Site Wind Speed [m/s] !TimeStep
11,1,Environment,Site Wind Direction [deg] !TimeStep
12,1,Environment,Site Diffuse Solar Radiation Rate per Area [W/m2] !TimeStep
13,1,Environment,Site Direct Solar Radiation Rate per Area [W/m2] !TimeStep
208,1,TZ_AMPHITHEATER,Zone Mean Air Temperature [C] !TimeStep
343,1,TZ_AMPHITHEATER,Zone Air CO2 Concentration [ppm] !TimeStep
540,1,HTG HVAC 1 ADJUSTED BY 1.1 F,Schedule Value [] !TimeStep
541,1,CLG HVAC 1 ADJUSTED BY 0 F,Schedule Value [] !TimeStep
542,1,AHUS ONOFF,Schedule Value [] !TimeStep
543,1,HOT_WATER_TEMPERATURE 1,Schedule Value [] !TimeStep
544,1,MAISON DU SAVOIR AUDITORIUM OCC,Schedule Value [] !TimeStep
15,1,Electricity:Facility [J] !TimeStep
608,1,Electricity:HVAC [J] !TimeStep
820,1,Electricity:Plant [J] !TimeStep
620,1,Fans:Electricity [J] !TimeStep
369,1,Heating:DistrictHeatingWater [J] !TimeStep
558,1,HeatingCoils:EnergyTransfer [J] !TimeStep
832,1,Pumps:Electricity [J] !TimeStep
End of Data Dictionary
1,2020,  49.62,   6.22,   0.00, 376.00
2,1, 2, 1, 0, 1, 0.00,15.00,Saturday
7,9.15
8,6.375
9,83.0
10,8.25
11,222.5
12,0.0
13,0.0
208,12.057967983866615
343,400.00000000000017
540,16.6111111111111
541,30.0
542,1.0
543,67.0
544,0.0
15,5254725.06156889
369,0.0
558,0.0
608,5037597.120157812
620,5037597.120157812
820,0.0
832,0.0
2,1, 2, 1, 0, 1,15.00,30.00,Saturday
7,9.0
8,6.050000000000001
9,82.0
10,8.5
11,225.0
12,0.0
13,0.0
208,11.996967573823936
343,400.00000000000017
540,16.6111111111111
541,30.0
542,1.0
543,67.0
544,0.0
15,5254725.06156889
369,0.0
558,0.0
608,5037597.120157812
620,5037597.120157812
820,0.0
832,0.0
2,1, 2, 1, 0, 1,30.00,45.00,Saturday
7,8.85
8,5.7250000000000005
9,81.0
10,8.75
11,227.5
12,0.0
13,0.0
208,11.917323960367986
343,400.0000000000001
540,16.6111111111111
541,30.0
542,1.0
543,67.0
544,0.0
15,5254725.06156889
369,0.0
558,0.0
608,5037597.120157812
620,5037597.120157812
820,0.0
832,0.0
2,1, 2, 1, 0, 1,45.00,60.00,Saturday
7,8.7
8,5.4
9,80.0
10,9.0
11,230.0
12,0.0
13,0.0
208,11.837540870275255
343,400.0000000000001
540,16.6111111111111
541,30.0
542,1.0
543,67.0
544,0.0
15,5254725.06156889
369,0.0
558,0.0
608,5037597.120157812
620,5037597.120157812
820,0.0
832,0.0
2,1, 2, 1, 0, 2, 0.00,15.00,Saturday
7,8.674999999999999
8,5.425000000000001
9,80.25
10,8.875
11,230.0
12,0.0
13,0.0
208,11.790444050490729
343,400.0000000000001
540,16.6111111111111
541,30.0
542,1.0
543,67.0
544,0.0
15,5254725.06156889
369,0.0
558,0.0
608,5037597.120157812
620,5037597.120157812
820,0.0
832,0.0
2,1, 2, 1, 0, 2,15.00,30.00,Saturday
7,8.649999999999999
8,5.45
9,80.5
10,8.75
11,230.0
12,0.0
13,0.0
208,11.770519091695727
343,400.00000000000017
540,16.6111111111111
541,30.0
542,1.0
543,67.0
544,0.0
15,5254725.06156889
369,0.0
558,0.0
608,5037597.120157812
620,5037597.120157812
820,0.0
832,0.0
2,1, 2, 1, 0, 2,30.00,45.00,Saturday
7,8.625
8,5.475
9,80.75
10,8.625
11,230.0
12,0.0
13,0.0
208,11.75959923976813
343,400.00000000000017
540,16.6111111111111
541,30.0
542,1.0
543,67.0
544,0.0
15,5254725.06156889
369,0.0
558,0.0
608,5037597.120157812
620,5037597.120157812
820,0.0
832,0.0
2,1, 2, 1, 0, 2,45.00,60.00,Saturday
7,8.6
8,5.5
9,81.0
10,8.5
11,230.0
12,0.0
13,0.0
208,11.747561120417542
343,400.00000000000017
540,16.6111111111111
541,30.0
542,1.0
543,67.0
544,0.0
15,5254725.06156889
369,0.0
558,0.0
608,5037597.120157812
620,5037597.120157812
820,0.0
832,0.0
2,1, 2, 1, 0, 3, 0.00,15.00,Saturday
7,8.575
8,5.5
9,81.0
10,8.5
11,230.0
12,0.0
13,0.0
208,11.733202144445903
343,400.0000000000001
540,16.6111111111111
541,30.0
542,1.0
543,67.0
544,0.0
15,5254725.06156889
369,0.0
558,0.0
608,5037597.120157812
620,5037597.120157812
820,0.0
832,0.0
2,1, 2, 1, 0, 3,15.00,30.00,Saturday
7,8.55
8,5.5
9,81.0
10,8.5
11,230.0
12,0.0
13,0.0
208,11.718291329095067
343,400.00000000000017
540,16.6111111111111
541,30.0
542,1.0
543,67.0
544,0.0
15,5254725.06156889
369,0.0
558,0.0
608,5037597.120157812
620,5037597.120157812
820,0.0
832,0.0
2,1, 2, 1, 0, 3,30.00,45.00,Saturday
7,8.525
8,5.5
9,81.0
10,8.5
11,230.0
12,0.0
13,0.0
208,11.70387089924541
343,400.0000000000001
540,16.6111111111111
541,30.0
542,1.0
543,67.0
544,0.0
15,5254725.06156889
369,0.0
558,0.0
608,5037597.120157812
620,5037597.120157812
820,0.0
832,0.0
2,1, 2, 1, 0, 3,45.00,60.00,Saturday
7,8.5
8,5.5
9,81.0
10,8.5
11,230.0
12,0.0
13,0.0
208,11.689907168437282
343,400.00000000000017
540,16.6111111111111
541,30.0
542,1.0
543,67.0
544,0.0
15,5254725.06156889
369,0.0
558,0.0
608,5037597.120157812
620,5037597.120157812
820,0.0
832,0.0
2,1, 2, 1, 0, 4, 0.00,15.00,Saturday
7,8.475
8,5.475
9,81.0
10,8.5
11,230.0
12,0.0
13,0.0
208,11.676065881672418
343,400.00000000000006
540,16.6111111111111
541,30.0
542,1.0
543,67.0
544,0.0
15,5254725.06156889
369,0.0
558,0.0
608,5037597.120157812
620,5037597.120157812
820,0.0
832,0.0
2,1, 2, 1, 0, 4,15.00,30.00,Saturday
7,8.45
8,5.45
9,81.0
10,8.5
11,230.0
12,0.0
13,0.0
208,11.662169208391708
343,400.00000000000006
540,16.6111111111111
541,30.0
542,1.0
543,67.0
544,0.0
15,5254725.06156889
369,0.0
558,0.0
608,5037597.120157812
620,5037597.120157812
820,0.0
832,0.0
2,1, 2, 1, 0, 4,30.00,45.00,Saturday
7,8.425
8,5.425000000000001
9,81.0
10,8.5
11,230.0
12,0.0
13,0.0
208,11.648209281730102
343,400.0000000000001
540,16.6111111111111
541,30.0
542,1.0
543,67.0
544,0.0
15,5254725.06156889
369,0.0
558,0.0
608,5037597.120157812
620,5037597.120157812
820,0.0
832,0.0
2,1, 2, 1, 0, 4,45.00,60.00,Saturday
7,8.4
8,5.4
9,81.0
10,8.5
11,230.0
12,0.0
13,0.0
208,11.6342242894547
343,400.0000000000001
540,16.6111111111111
541,30.0
542,1.0
543,67.0
544,0.0
15,5254725.06156889
369,0.0
558,0.0
608,5037597.120157812
620,5037597.120157812
820,0.0
832,0.0
2,1, 2, 1, 0, 5, 0.00,15.00,Saturday
7,8.350000000000001
8,5.3500000000000005
9,81.0
10,8.425
11,229.25
12,0.0
13,0.0
208,11.61441448813726
343,400.00000000000006
540,16.6111111111111
541,30.0
542,1.0
543,67.0
544,0.0
15,5254725.06156889
369,0.0
558,0.0
608,5037597.120157812
620,5037597.120157812
820,0.0
832,0.0
2,1, 2, 1, 0, 5,15.00,30.00,Saturday
7,8.3
8,5.300000000000001
9,81.0
10,8.35
11,228.5
12,0.0
13,0.0
208,11.589382872375204
343,400.00000000000006
540,16.6111111111111
541,30.0
542,1.0
543,67.0
544,0.0
15,5254725.06156889
369,0.0
558,0.0
608,5037597.120157812
620,5037597.120157812
820,0.0
832,0.0
2,1, 2, 1, 0, 5,30.00,45.00,Saturday
7,8.25
8,5.25
9,81.0
10,8.274999999999999
11,227.75
12,0.0
13,0.0
208,11.562363026061174
343,400.0
540,16.6111111111111
541,30.0
542,1.0
543,67.0
544,0.0
15,5254725.06156889
369,0.0
558,0.0
608,5037597.120157812
620,5037597.120157812
820,0.0
832,0.0
2,1, 2, 1, 0, 5,45.00,60.00,Saturday
7,8.2
8,5.2
9,81.0
10,8.2
11,227.0
12,0.0
13,0.0
208,11.535326471660895
343,400.00000000000006
540,16.6111111111111
541,30.0
542,1.0
543,67.0
544,0.0
15,5254725.06156889
369,0.0
558,0.0
608,5037597.120157812
620,5037597.120157812
820,0.0
832,0.0
2,1, 2, 1, 0, 6, 0.00,15.00,Saturday
7,8.149999999999999
8,5.175000000000001
9,81.25
10,8.274999999999999
11,227.0
12,0.0
13,0.0
208,11.508613250128615
343,400.00000000000017
540,16.6111111111111
541,30.0
542,1.0
543,67.0
544,0.0
15,5254725.06156889
369,0.0
558,0.0
608,5037597.120157812
620,5037597.120157812
820,0.0
832,0.0
2,1, 2, 1, 0, 6,15.00,30.00,Saturday
7,8.1
8,5.15
9,81.5
10,8.35
11,227.0
12,0.0
13,0.0
208,11.481935465226124
343,400.00000000000017
540,16.6111111111111
541,30.0
542,1.0
543,67.0
544,0.0
15,5254725.06156889
369,0.0
558,0.0
608,5037597.120157812
620,5037597.120157812
820,0.0
832,0.0
2,1, 2, 1, 0, 6,30.00,45.00,Saturday
7,8.05
8,5.125
9,81.75
10,8.425
11,227.0
12,0.0
13,0.0
208,11.455107432355229
343,400.0000000000001
540,16.6111111111111
541,30.0
542,1.0
543,67.0
544,0.0
15,5254725.06156889
369,0.0
558,0.0
608,5037597.120157812
620,5037597.120157812
820,0.0
832,0.0
2,1, 2, 1, 0, 6,45.00,60.00,Saturday
7,8.0
8,5.1
9,82.0
10,8.5
11,227.0
12,0.0
13,0.0
208,11.428128218444302
343,400.0000000000001
540,16.6111111111111
541,30.0
542,1.0
543,67.0
544,0.0
15,5254725.06156889
369,0.0
558,0.0
608,5037597.120157812
620,5037597.120157812
820,0.0
832,0.0
2,1, 2, 1, 0, 7, 0.00,15.00,Saturday
7,8.075
8,5.1
9,81.5
10,8.375
11,227.75
12,0.0
13,0.0
208,11.430045701061157
343,400.00000000000017
540,16.6111111111111
541,30.0
542,1.0
543,67.0
544,0.0
15,5254725.06156889
369,0.0
558,0.0
608,5037597.120157812
620,5037597.120157812
820,0.0
832,0.0
2,1, 2, 1, 0, 7,15.00,30.00,Saturday
7,8.15
8,5.1
9,81.0
10,8.25
11,228.5
12,0.0
13,0.0
208,11.457820581587715
343,400.0000000000001
540,16.6111111111111
541,30.0
542,1.0
543,67.0
544,0.0
15,5254725.06156889
369,0.0
558,0.0
608,5037597.120157812
620,5037597.120157812
820,0.0
832,0.0
2,1, 2, 1, 0, 7,30.00,45.00,Saturday
7,8.225000000000001
8,5.1
9,80.5
10,8.125
11,229.25
12,0.0
13,0.0
208,11.495454414041877
343,400.00000000000006
540,16.6111111111111
541,30.0
542,1.0
543,67.0
544,0.0
15,5254725.06156889
369,0.0
558,0.0
608,5037597.120157812
620,5037597.120157812
820,0.0
832,0.0
2,1, 2, 1, 0, 7,45.00,60.00,Saturday
7,8.3
8,5.1
9,80.0
10,8.0
11,230.0
12,0.0
13,0.0
208,11.533196739345307
343,400.0000000000001
540,16.6111111111111
541,30.0
542,1.0
543,67.0
544,0.0
15,5254725.06156889
369,0.0
558,0.0
608,5037597.120157812
620,5037597.120157812
820,0.0
832,0.0
2,1, 2, 1, 0, 8, 0.00,15.00,Saturday
7,8.175
8,5.0249999999999995
9,80.25
10,8.0
11,227.5
12,6.0
13,0.0
208,11.522869201372586
343,400.00000000000017
540,16.6111111111111
541,30.0
542,1.0
543,67.0
544,0.0
15,5254725.06156889
369,0.0
558,0.0
608,5037597.120157812
620,5037597.120157812
820,0.0
832,0.0
2,1, 2, 1, 0, 8,15.00,30.00,Saturday
7,8.05
8,4.949999999999999
9,80.5
10,8.0
11,225.0
12,8.0
13,0.0
208,11.470635845034266
343,400.0000000000001
540,16.6111111111111
541,30.0
542,1.0
543,67.0
544,0.0
15,5254725.06156889
369,0.0
558,0.0
608,5037597.120157812
620,5037597.120157812
820,0.0
832,0.0
2,1, 2, 1, 0, 8,30.00,45.00,Saturday
7,7.925
8,4.875
9,80.75
10,8.0
11,222.5
12,20.0
13,0.0
208,11.403274083309961
343,400.0000000000001
540,16.6111111111111
541,30.0
542,1.0
543,67.0
544,0.0
15,5254725.06156889
369,0.0
558,0.0
608,5037597.120157812
620,5037597.120157812
820,0.0
832,0.0
2,1, 2, 1, 0, 8,45.00,60.00,Saturday
7,7.8
8,4.8
9,81.0
10,8.0
11,220.0
12,32.0
13,0.0
208,11.33652975481868
343,400.0000000000001
540,16.6111111111111
541,30.0
542,1.0
543,67.0
544,0.0
15,5254725.06156889
369,0.0
558,0.0
608,5037597.120157812
620,5037597.120157812
820,0.0
832,0.0
2,1, 2, 1, 0, 9, 0.00,15.00,Saturday
7,7.75
8,4.875
9,81.75
10,8.25
11,222.5
12,44.0
13,0.0
208,11.29021245468143
343,400.0000000000001
540,16.6111111111111
541,30.0
542,1.0
543,67.0
544,0.0
15,5254725.06156889
369,0.0
558,0.0
608,5037597.120157812
620,5037597.120157812
820,0.0
832,0.0
2,1, 2, 1, 0, 9,15.00,30.00,Saturday
7,7.699999999999999
8,4.949999999999999
9,82.5
10,8.5
11,225.0
12,56.0
13,0.0
208,11.259960790841244
343,400.0000000000001
540,16.6111111111111
541,30.0
542,1.0
543,67.0
544,0.0
15,5254725.06156889
369,0.0
558,0.0
608,5037597.120157812
620,5037597.120157812
820,0.0
832,0.0
2,1, 2, 1, 0, 9,30.00,45.00,Saturday
7,7.6499999999999995
8,5.0249999999999995
9,83.25
10,8.75
11,227.5
12,70.0
13,2.25
208,11.234588989784777
343,400.0000000000001
540,16.6111111111111
541,30.0
542,1.0
543,67.0
544,0.0
15,5254725.06156889
369,0.0
558,0.0
608,5037597.120157812
620,5037597.120157812
820,0.0
832,0.0
2,1, 2, 1, 0, 9,45.00,60.00,Saturday
7,7.6
8,5.1
9,84.0
10,9.0
11,230.0
12,84.0
13,4.5
208,11.208250018775095
343,400.0000000000001
540,16.6111111111111
541,30.0
542,1.0
543,67.0
544,0.0
15,5254725.06156889
369,0.0
558,0.0
608,5037597.120157812
620,5037597.120157812
820,0.0
832,0.0
2,1, 2, 1, 0,10, 0.00,15.00,Saturday
7,7.6
8,5.125
9,84.25
10,8.75
11,230.0
12,98.0
13,6.75
208,11.192005335362174
343,400.00000000000017
540,16.6111111111111
541,30.0
542,1.0
543,67.0
544,0.0
15,5254725.06156889
369,0.0
558,0.0
608,5037597.120157812
620,5037597.120157812
820,0.0
832,0.0
2,1, 2, 1, 0,10,15.00,30.00,Saturday
7,7.6
8,5.15
9,84.5
10,8.5
11,230.0
12,112.0
13,9.0
208,11.185721478095205
343,400.00000000000017
540,16.6111111111111
541,30.0
542,1.0
543,67.0
544,0.0
15,5254725.06156889
369,0.0
558,0.0
608,5037597.120157812
620,5037597.120157812
820,0.0
832,0.0
2,1, 2, 1, 0,10,30.00,45.00,Saturday
7,7.6
8,5.175000000000001
9,84.75
10,8.25
11,230.0
12,117.5
13,23.75
208,11.183583261474794
343,400.0000000000001
540,16.6111111111111
541,30.0
542,1.0
543,67.0
544,0.0
15,5254725.06156889
369,0.0
558,0.0
608,5037597.120157812
620,5037597.120157812
820,0.0
832,0.0
2,1, 2, 1, 0,10,45.00,60.00,Saturday
7,7.6
8,5.2
9,85.0
10,8.0
11,230.0
12,123.0
13,38.5
208,11.181688434004233
343,400.00000000000017
540,16.6111111111111
541,30.0
542,1.0
543,67.0
544,0.0
15,5254725.06156889
369,0.0
558,0.0
608,5037597.120157812
620,5037597.120157812
820,0.0
832,0.0
2,1, 2, 1, 0,11, 0.00,15.00,Saturday
7,7.499999999999999
8,5.15
9,85.25
10,8.25
11,240.0
12,128.5
13,53.25
208,11.156139176488251
343,400.0000000000001
540,16.6111111111111
541,30.0
542,1.0
543,67.0
544,0.0
15,5254725.06156889
369,0.0
558,0.0
608,5037597.120157812
620,5037597.120157812
820,0.0
832,0.0
2,1, 2, 1, 0,11,15.00,30.00,Saturday
7,7.4
8,5.1
9,85.5
10,8.5
11,250.0
12,134.0
13,68.0
208,11.10996912691087
343,400.00000000000006
540,16.6111111111111
541,30.0
542,1.0
543,67.0
544,0.0
15,5254725.06156889
369,0.0
558,0.0
608,5037597.120157812
620,5037597.120157812
820,0.0
832,0.0
2,1, 2, 1, 0,11,30.00,45.00,Saturday
7,7.300000000000001
8,5.05
9,85.75
10,8.75
11,260.0
12,138.75
13,160.25
208,11.056368003302765
343,400.00000000000006
540,16.6111111111111
541,30.0
542,1.0
543,67.0
544,0.0
15,5254725.06156889
369,0.0
558,0.0
608,5037597.120157812
620,5037597.120157812
820,0.0
832,0.0
2,1, 2, 1, 0,11,45.00,60.00,Saturday
7,7.2
8,5.0
9,86.0
10,9.0
11,270.0
12,143.5
13,252.5
208,11.003097162423902
343,400.00000000000006
540,16.6111111111111
541,30.0
542,1.0
543,67.0
544,0.0
15,5254725.06156889
369,0.0
558,0.0
608,5037597.120157812
620,5037597.120157812
820,0.0
832,0.0
2,1, 2, 1, 0,12, 0.00,15.00,Saturday
7,7.275
8,5.025
9,85.75
10,8.5
11,265.0
12,148.25
13,344.75
208,10.991513751831127
343,400.00000000000006
540,16.6111111111111
541,30.0
542,1.0
543,67.0
544,0.0
15,5254725.06156889
369,0.0
558,0.0
608,5037597.120157812
620,5037597.120157812
820,0.0
832,0.0
2,1, 2, 1, 0,12,15.00,30.00,Saturday
7,7.35
8,5.05
9,85.5
10,8.0
11,260.0
12,153.0
13,437.0
208,11.015881809530148
343,400.0000000000001
540,16.6111111111111
541,30.0
542,1.0
543,67.0
544,0.0
15,5254725.06156889
369,0.0
558,0.0
608,5037597.120157812
620,5037597.120157812
820,0.0
832,0.0
2,1, 2, 1, 0,12,30.00,45.00,Saturday
7,7.425
8,5.074999999999999
9,85.25
10,7.5
11,255.0
12,152.25
13,435.0
208,11.053062035348724
343,400.00000000000017
540,16.6111111111111
541,30.0
542,1.0
543,67.0
544,0.0
15,5254725.06156889
369,0.0
558,0.0
608,5037597.120157812
620,5037597.120157812
820,0.0
832,0.0
2,1, 2, 1, 0,12,45.00,60.00,Saturday
7,7.5
8,5.1
9,85.0
10,7.0
11,250.0
12,151.5
13,433.0
208,11.089742997345393
343,400.0000000000001
540,16.6111111111111
541,30.0
542,1.0
543,67.0
544,0.0
15,5254725.06156889
369,0.0
558,0.0
608,5037597.120157812
620,5037597.120157812
820,0.0
832,0.0
2,1, 2, 1, 0,13, 0.00,15.00,Saturday
7,7.8
8,5.3999999999999995
9,85.0
10,7.0
11,247.5
12,150.75
13,431.0
208,11.17576748864231
343,400.0000000000001
540,16.6111111111111
541,30.0
542,1.0
543,67.0
544,0.0
15,5254725.06156889
369,0.0
558,0.0
608,5037597.120157812
620,5037597.120157812
820,0.0
832,0.0
2,1, 2, 1, 0,13,15.00,30.00,Saturday
7,8.1
8,5.699999999999999
9,85.0
10,7.0
11,245.0
12,150.0
13,429.0
208,11.307931025499599
343,400.0000000000001
540,16.6111111111111
541,30.0
542,1.0
543,67.0
544,0.0
15,5254725.06156889
369,0.0
558,0.0
608,5037597.120157812
620,5037597.120157812
820,0.0
832,0.0
2,1, 2, 1, 0,13,30.00,45.00,Saturday
7,8.399999999999999
8,6.0
9,85.0
10,7.0
11,242.5
12,146.0
13,329.25
208,11.459386228964208
343,400.0000000000001
540,16.6111111111111
541,30.0
542,1.0
543,67.0
544,0.0
15,5254725.06156889
369,0.0
558,0.0
608,5037597.120157812
620,5037597.120157812
820,0.0
832,0.0
2,1, 2, 1, 0,13,45.00,60.00,Saturday
7,8.7
8,6.3
9,85.0
10,7.0
11,240.0
12,142.0
13,229.5
208,11.613140417264683
343,400.00000000000017
540,16.6111111111111
541,30.0
542,1.0
543,67.0
544,0.0
15,5254725.06156889
369,0.0
558,0.0
608,5037597.120157812
620,5037597.120157812
820,0.0
832,0.0
2,1, 2, 1, 0,14, 0.00,15.00,Saturday
7,8.899999999999999
8,6.425
9,84.5
10,6.75
11,240.0
12,138.0
13,129.75
208,11.742500490542556
343,400.0000000000001
540,16.6111111111111
541,30.0
542,1.0
543,67.0
544,0.0
15,5254725.06156889
369,0.0
558,0.0
608,5037597.120157812
620,5037597.120157812
820,0.0
832,0.0
2,1, 2, 1, 0,14,15.00,30.00,Saturday
7,9.1
8,6.55
9,84.0
10,6.5
11,240.0
12,134.0
13,30.0
208,11.851612751729034
343,400.0000000000001
540,16.6111111111111
541,30.0
542,1.0
543,67.0
544,0.0
15,5254725.06156889
369,0.0
558,0.0
608,5037597.120157812
620,5037597.120157812
820,0.0
832,0.0
2,1, 2, 1, 0,14,30.00,45.00,Saturday
7,9.3
8,6.675
9,83.5
10,6.25
11,240.0
12,123.5
13,23.75
208,11.954552269812798
343,400.0000000000001
540,16.6111111111111
541,30.0
542,1.0
543,67.0
544,0.0
15,5254725.06156889
369,0.0
558,0.0
608,5037597.120157812
620,5037597.120157812
820,0.0
832,0.0
2,1, 2, 1, 0,14,45.00,60.00,Saturday
7,9.5
8,6.8
9,83.0
10,6.0
11,240.0
12,113.0
13,17.5
208,12.059244386460431
343,400.00000000000017
540,16.6111111111111
541,30.0
542,1.0
543,67.0
544,0.0
15,5254725.06156889
369,0.0
558,0.0
608,5037597.120157812
620,5037597.120157812
820,0.0
832,0.0
2,1, 2, 1, 0,15, 0.00,15.00,Saturday
7,9.575
8,6.6499999999999995
9,81.75
10,6.5
11,240.0
12,102.5
13,11.25
208,12.13724537145508
343,400.00000000000017
540,16.6111111111111
541,30.0
542,1.0
543,67.0
544,0.0
15,5254725.06156889
369,0.0
558,0.0
608,5037597.120157812
620,5037597.120157812
820,0.0
832,0.0
2,1, 2, 1, 0,15,15.00,30.00,Saturday
7,9.65
8,6.5
9,80.5
10,7.0
11,240.0
12,92.0
13,5.0
208,12.189502973762329
343,400.0000000000001
540,16.6111111111111
541,30.0
542,1.0
543,67.0
544,0.0
15,5254725.06156889
369,0.0
558,0.0
608,5037597.120157812
620,5037597.120157812
820,0.0
832,0.0
2,1, 2, 1, 0,15,30.00,45.00,Saturday
7,9.725000000000001
8,6.3500000000000005
9,79.25
10,7.5
11,240.0
12,77.5
13,3.75
208,12.23106365206127
343,400.0000000000001
540,16.6111111111111
541,30.0
542,1.0
543,67.0
544,0.0
15,5254725.06156889
369,0.0
558,0.0
608,5037597.120157812
620,5037597.120157812
820,0.0
832,0.0
2,1, 2, 1, 0,15,45.00,60.00,Saturday
7,9.8
8,6.2
9,78.0
10,8.0
11,240.0
12,63.0
13,2.5
208,12.272116763362902
343,400.0000000000001
540,16.6111111111111
541,30.0
542,1.0
543,67.0
544,0.0
15,5254725.06156889
369,0.0
558,0.0
608,5037597.120157812
620,5037597.120157812
820,0.0
832,0.0
2,1, 2, 1, 0,16, 0.00,15.00,Saturday
7,9.825000000000001
8,6.2250000000000005
9,78.0
10,7.5
11,240.0
12,48.5
13,1.25
208,12.303121449350517
343,400.0000000000001
540,16.6111111111111
541,30.0
542,1.0
543,67.0
544,0.0
15,5254725.06156889
369,0.0
558,0.0
608,5037597.120157812
620,5037597.120157812
820,0.0
832,0.0
2,1, 2, 1, 0,16,15.00,30.00,Saturday
7,9.850000000000001
8,6.25
9,78.0
10,7.0
11,240.0
12,34.0
13,0.0
208,12.323828726739505
343,400.00000000000017
540,16.6111111111111
541,30.0
542,1.0
543,67.0
544,0.0
15,5254725.06156889
369,0.0
558,0.0
608,5037597.120157812
620,5037597.120157812
820,0.0
832,0.0
2,1, 2, 1, 0,16,30.00,45.00,Saturday
7,9.875
8,6.2749999999999995
9,78.0
10,6.5
11,240.0
12,25.5
13,0.0
208,12.339743008165405
343,400.0000000000001
540,16.6111111111111
541,30.0
542,1.0
543,67.0
544,0.0
15,5254725.06156889
369,0.0
558,0.0
608,5037597.120157812
620,5037597.120157812
820,0.0
832,0.0
2,1, 2, 1, 0,16,45.00,60.00,Saturday
7,9.9
8,6.3
9,78.0
10,6.0
11,240.0
12,17.0
13,0.0
208,12.354966000516846
343,400.00000000000006
540,16.6111111111111
541,30.0
542,1.0
543,67.0
544,0.0
15,5254725.06156889
369,0.0
558,0.0
608,5037597.120157812
620,5037597.120157812
820,0.0
832,0.0
2,1, 2, 1, 0,17, 0.00,15.00,Saturday
7,9.875
8,6.225
9,77.75
10,6.25
11,240.0
12,8.5
13,0.0
208,12.358796272326373
343,400.00000000000006
540,16.6111111111111
541,30.0
542,1.0
543,67.0
544,0.0
15,5254725.06156889
369,0.0
558,0.0
608,5037597.120157812
620,5037597.120157812
820,0.0
832,0.0
2,1, 2, 1, 0,17,15.00,30.00,Saturday
7,9.850000000000001
8,6.15
9,77.5
10,6.5
11,240.0
12,0.0
13,0.0
208,12.351863626381602
343,400.00000000000006
540,16.6111111111111
541,30.0
542,1.0
543,67.0
544,0.0
15,5254725.06156889
369,0.0
558,0.0
608,5037597.120157812
620,5037597.120157812
820,0.0
832,0.0
2,1, 2, 1, 0,17,30.00,45.00,Saturday
7,9.825000000000001
8,6.075
9,77.25
10,6.75
11,240.0
12,0.0
13,0.0
208,12.340314708195214
343,400.0000000000001
540,16.6111111111111
541,30.0
542,1.0
543,67.0
544,0.0
15,5254725.06156889
369,0.0
558,0.0
608,5037597.120157812
620,5037597.120157812
820,0.0
832,0.0
2,1, 2, 1, 0,17,45.00,60.00,Saturday
7,9.8
8,6.0
9,77.0
10,7.0
11,240.0
12,0.0
13,0.0
208,12.328300105449163
343,400.0000000000001
540,16.6111111111111
541,30.0
542,1.0
543,67.0
544,0.0
15,5254725.06156889
369,0.0
558,0.0
608,5037597.120157812
620,5037597.120157812
820,0.0
832,0.0
2,1, 2, 1, 0,18, 0.00,15.00,Saturday
7,9.55
8,6.025
9,78.5
10,6.75
11,235.0
12,0.0
13,0.0
208,12.263404441796437
343,400.0000000000001
540,16.6111111111111
541,30.0
542,1.0
543,67.0
544,0.0
15,5254725.06156889
369,0.0
558,0.0
608,5037597.120157812
620,5037597.120157812
820,0.0
832,0.0
2,1, 2, 1, 0,18,15.00,30.00,Saturday
7,9.3
8,6.05
9,80.0
10,6.5
11,230.0
12,0.0
13,0.0
208,12.149792565970623
343,400.00000000000006
540,16.6111111111111
541,30.0
542,1.0
543,67.0
544,0.0
15,5254725.06156889
369,0.0
558,0.0
608,5037597.120157812
620,5037597.120157812
820,0.0
832,0.0
2,1, 2, 1, 0,18,30.00,45.00,Saturday
7,9.05
8,6.074999999999999
9,81.5
10,6.25
11,225.0
12,0.0
13,0.0
208,12.016911011753635
343,400.00000000000006
540,16.6111111111111
541,30.0
542,1.0
543,67.0
544,0.0
15,5254725.06156889
369,0.0
558,0.0
608,5037597.120157812
620,5037597.120157812
820,0.0
832,0.0
2,1, 2, 1, 0,18,45.00,60.00,Saturday
7,8.8
8,6.1
9,83.0
10,6.0
11,220.0
12,0.0
13,0.0
208,11.883909757737992
343,400.0000000000001
540,16.6111111111111
541,30.0
542,1.0
543,67.0
544,0.0
15,5254725.06156889
369,0.0
558,0.0
608,5037597.120157812
620,5037597.120157812
820,0.0
832,0.0
2,1, 2, 1, 0,19, 0.00,15.00,Saturday
7,8.75
8,6.1
9,83.25
10,5.75
11,220.0
12,0.0
13,0.0
208,11.80166991420306
343,400.00000000000017
540,16.6111111111111
541,30.0
542,1.0
543,67.0
544,0.0
15,5254725.06156889
369,0.0
558,0.0
608,5037597.120157812
620,5037597.120157812
820,0.0
832,0.0
2,1, 2, 1, 0,19,15.00,30.00,Saturday
7,8.7
8,6.1
9,83.5
10,5.5
11,220.0
12,0.0
13,0.0
208,11.76295192868557
343,400.0000000000001
540,16.6111111111111
541,30.0
542,1.0
543,67.0
544,0.0
15,5254725.06156889
369,0.0
558,0.0
608,5037597.120157812
620,5037597.120157812
820,0.0
832,0.0
2,1, 2, 1, 0,19,30.00,45.00,Saturday
7,8.649999999999999
8,6.1
9,83.75
10,5.25
11,220.0
12,0.0
13,0.0
208,11.739684467871387
343,400.0000000000001
540,16.6111111111111
541,30.0
542,1.0
543,67.0
544,0.0
15,5254725.06156889
369,0.0
558,0.0
608,5037597.120157812
620,5037597.120157812
820,0.0
832,0.0
2,1, 2, 1, 0,19,45.00,60.00,Saturday
7,8.6
8,6.1
9,84.0
10,5.0
11,220.0
12,0.0
13,0.0
208,11.715419529073143
343,400.0000000000001
540,16.6111111111111
541,30.0
542,1.0
543,67.0
544,0.0
15,5254725.06156889
369,0.0
558,0.0
608,5037597.120157812
620,5037597.120157812
820,0.0
832,0.0
2,1, 2, 1, 0,20, 0.00,15.00,Saturday
7,8.524999999999999
8,6.1
9,84.5
10,5.25
11,215.0
12,0.0
13,0.0
208,11.681818287190621
343,400.00000000000006
540,16.6111111111111
541,30.0
542,1.0
543,67.0
544,0.0
15,5254725.06156889
369,0.0
558,0.0
608,5037597.120157812
620,5037597.120157812
820,0.0
832,0.0
2,1, 2, 1, 0,20,15.00,30.00,Saturday
7,8.45
8,6.1
9,85.0
10,5.5
11,210.0
12,0.0
13,0.0
208,11.64201760593396
343,400.00000000000006
540,16.6111111111111
541,30.0
542,1.0
543,67.0
544,0.0
15,5254725.06156889
369,0.0
558,0.0
608,5037597.120157812
620,5037597.120157812
820,0.0
832,0.0
2,1, 2, 1, 0,20,30.00,45.00,Saturday
7,8.375
8,6.1
9,85.5
10,5.75
11,205.0
12,0.0
13,0.0
208,11.600928079071576
343,400.00000000000006
540,16.6111111111111
541,30.0
542,1.0
543,67.0
544,0.0
15,5254725.06156889
369,0.0
558,0.0
608,5037597.120157812
620,5037597.120157812
820,0.0
832,0.0
2,1, 2, 1, 0,20,45.00,60.00,Saturday
7,8.3
8,6.1
9,86.0
10,6.0
11,200.0
12,0.0
13,0.0
208,11.560567072604282
343,400.00000000000006
540,16.6111111111111
541,30.0
542,1.0
543,67.0
544,0.0
15,5254725.06156889
369,0.0
558,0.0
608,5037597.120157812
620,5037597.120157812
820,0.0
832,0.0
2,1, 2, 1, 0,21, 0.00,15.00,Saturday
7,8.275
8,6.074999999999999
9,86.0
10,5.75
11,202.5
12,0.0
13,0.0
208,11.532422864820726
343,400.0000000000001
540,16.6111111111111
541,30.0
542,1.0
543,67.0
544,0.0
15,5254725.06156889
369,0.0
558,0.0
608,5037597.120157812
620,5037597.120157812
820,0.0
832,0.0
2,1, 2, 1, 0,21,15.00,30.00,Saturday
7,8.25
8,6.05
9,86.0
10,5.5
11,205.0
12,0.0
13,0.0
208,11.514741079359796
343,400.00000000000017
540,16.6111111111111
541,30.0
542,1.0
543,67.0
544,0.0
15,5254725.06156889
369,0.0
558,0.0
608,5037597.120157812
620,5037597.120157812
820,0.0
832,0.0
2,1, 2, 1, 0,21,30.00,45.00,Saturday
7,8.225
8,6.025
9,86.0
10,5.25
11,207.5
12,0.0
13,0.0
208,11.500851249655106
343,400.0000000000001
540,16.6111111111111
541,30.0
542,1.0
543,67.0
544,0.0
15,5254725.06156889
369,0.0
558,0.0
608,5037597.120157812
620,5037597.120157812
820,0.0
832,0.0
2,1, 2, 1, 0,21,45.00,60.00,Saturday
7,8.2
8,6.0
9,86.0
10,5.0
11,210.0
12,0.0
13,0.0
208,11.48684339015626
343,400.00000000000017
540,16.6111111111111
541,30.0
542,1.0
543,67.0
544,0.0
15,5254725.06156889
369,0.0
558,0.0
608,5037597.120157812
620,5037597.120157812
820,0.0
832,0.0
2,1, 2, 1, 0,22, 0.00,15.00,Saturday
7,8.299999999999999
8,6.1
9,86.0
10,5.0
11,210.0
12,0.0
13,0.0
208,11.501070363644677
343,400.0000000000001
540,16.6111111111111
541,30.0
542,1.0
543,67.0
544,0.0
15,5254725.06156889
369,0.0
558,0.0
608,5037597.120157812
620,5037597.120157812
820,0.0
832,0.0
2,1, 2, 1, 0,22,15.00,30.00,Saturday
7,8.399999999999999
8,6.2
9,86.0
10,5.0
11,210.0
12,0.0
13,0.0
208,11.541202206701824
343,400.0000000000001
540,16.6111111111111
541,30.0
542,1.0
543,67.0
544,0.0
15,5254725.06156889
369,0.0
558,0.0
608,5037597.120157812
620,5037597.120157812
820,0.0
832,0.0
2,1, 2, 1, 0,22,30.00,45.00,Saturday
7,8.5
8,6.300000000000001
9,86.0
10,5.0
11,210.0
12,0.0
13,0.0
208,11.591641953091658
343,400.0000000000001
540,16.6111111111111
541,30.0
542,1.0
543,67.0
544,0.0
15,5254725.06156889
369,0.0
558,0.0
608,5037597.120157812
620,5037597.120157812
820,0.0
832,0.0
2,1, 2, 1, 0,22,45.00,60.00,Saturday
7,8.6
8,6.4
9,86.0
10,5.0
11,210.0
12,0.0
13,0.0
208,11.642610555531594
343,400.00000000000017
540,16.6111111111111
541,30.0
542,1.0
543,67.0
544,0.0
15,5254725.06156889
369,0.0
558,0.0
608,5037597.120157812
620,5037597.120157812
820,0.0
832,0.0
2,1, 2, 1, 0,23, 0.00,15.00,Saturday
7,8.7
8,6.450000000000001
9,85.75
10,5.5
11,212.5
12,0.0
13,0.0
208,11.692220726306974
343,400.0000000000001
540,16.6111111111111
541,30.0
542,1.0
543,67.0
544,0.0
15,5254725.06156889
369,0.0
558,0.0
608,5037597.120157812
620,5037597.120157812
820,0.0
832,0.0
2,1, 2, 1, 0,23,15.00,30.00,Saturday
7,8.8
8,6.5
9,85.5
10,6.0
11,215.0
12,0.0
13,0.0
208,11.741763140044052
343,400.00000000000017
540,16.6111111111111
541,30.0
542,1.0
543,67.0
544,0.0
15,5254725.06156889
369,0.0
558,0.0
608,5037597.120157812
620,5037597.120157812
820,0.0
832,0.0
2,1, 2, 1, 0,23,30.00,45.00,Saturday
7,8.9
8,6.549999999999999
9,85.25
10,6.5
11,217.5
12,0.0
13,0.0
208,11.792147593427504
343,400.0000000000001
540,16.6111111111111
541,30.0
542,1.0
543,67.0
544,0.0
15,5254725.06156889
369,0.0
558,0.0
608,5037597.120157812
620,5037597.120157812
820,0.0
832,0.0
2,1, 2, 1, 0,23,45.00,60.00,Saturday
7,9.0
8,6.6
9,85.0
10,7.0
11,220.0
12,0.0
13,0.0
208,11.843406333457683
343,400.00000000000006
540,16.6111111111111
541,30.0
542,1.0
543,67.0
544,0.0
15,5254725.06156889
369,0.0
558,0.0
608,5037597.120157812
620,5037597.120157812
820,0.0
832,0.0
2,1, 2, 1, 0,24, 0.00,15.00,Saturday
7,9.075
8,6.624999999999999
9,84.75
10,7.25
11,220.0
12,0.0
13,0.0
208,11.88937275014038
343,400.0000000000001
540,16.6111111111111
541,30.0
542,1.0
543,67.0
544,0.0
15,5254725.06156889
369,0.0
558,0.0
608,5037597.120157812
620,5037597.120157812
820,0.0
832,0.0
2,1, 2, 1, 0,24,15.00,30.00,Saturday
7,9.15
8,6.65
9,84.5
10,7.5
11,220.0
12,0.0
13,0.0
208,11.930376753092364
343,400.0000000000001
540,16.6111111111111
541,30.0
542,1.0
543,67.0
544,0.0
15,5254725.06156889
369,0.0
558,0.0
608,5037597.120157812
620,5037597.120157812
820,0.0
832,0.0
2,1, 2, 1, 0,24,30.00,45.00,Saturday
7,9.225000000000001
8,6.675000000000001
9,84.25
10,7.75
11,220.0
12,0.0
13,0.0
208,11.969558370885592
343,400.0000000000001
540,16.6111111111111
541,30.0
542,1.0
543,67.0
544,0.0
15,5254725.06156889
369,0.0
558,0.0
608,5037597.120157812
620,5037597.120157812
820,0.0
832,0.0
2,1, 2, 1, 0,24,45.00,60.00,Saturday
7,9.3
8,6.7
9,84.0
10,8.0
11,220.0
12,0.0
13,0.0
208,12.008949765009586
343,400.0000000000001
540,16.6111111111111
541,30.0
542,1.0
543,67.0
544,0.0
15,5254725.06156889
369,0.0
558,0.0
608,5037597.120157812
620,5037597.120157812
820,0.0
832,0.0
2,2, 2, 2, 0, 1, 0.00,15.00,Sunday
7,9.425
8,6.6000000000000005
9,82.75
10,8.25
11,222.5